ITEM: TIMESTEP
0
ITEM: NUMBER OF ATOMS
10
ITEM: BOX BOUNDS f f
-70.0 70.0
-70.0 70.0
0 0
ITEM: ATOMS radius x y v_x v_y
1.399999999999999911e+00 -6.182886123657226562e+01 -5.524728012084960938e+01 2.644527402459190046e+00 -1.008183381937927692e+01
1.399999999999999911e+00 -1.042000007629394531e+01 -5.025934600830078125e+01 -8.339294674121596529e+00 -4.685761553279711222e+00
1.399999999999999911e+00 3.517066574096679688e+01 -5.892549133300781250e+01 8.932358505066327226e+00 4.253462826630327598e+00
1.399999999999999911e+00 4.373639297485351562e+01 -5.600797271728515625e+01 3.448085771431446123e+00 4.555985834695377434e+00
1.399999999999999911e+00 -5.191171646118164062e+01 7.861052989959716797e+00 -9.032147932189921846e+00 3.884050627196981020e-01
1.399999999999999911e+00 -2.088166427612304688e+01 9.825201034545898438e-01 8.598162683085520896e+00 1.762811564451443713e+00
1.399999999999999911e+00 1.455190944671630859e+01 -8.884750366210937500e+00 -1.043174490243222152e+01 8.966492269678973948e-01
1.399999999999999911e+00 6.307006835937500000e+01 -9.799712896347045898e-01 -8.212759680945611152e+00 -3.001696348847769924e-01
1.399999999999999911e+00 -4.450142288208007812e+01 -6.831890869140625000e+01 -7.609131049622325449e+00 -9.487373037781864582e+00
1.399999999999999911e+00 -2.870296669006347656e+01 6.528051757812500000e+01 9.627806875689023158e+00 -1.788861007463735442e+00
ITEM: TIMESTEP
1
ITEM: NUMBER OF ATOMS
10
ITEM: BOX BOUNDS f f
-70.0 70.0
-70.0 70.0
0 0
ITEM: ATOMS radius x y v_x v_y
1.399999999999999911e+00 -6.169664001464843750e+01 -5.575136947631835938e+01 2.644382035107322615e+00 -1.008175900393952773e+01
1.399999999999999911e+00 -1.083696460723876953e+01 -5.049363327026367188e+01 -8.339292655497082762e+00 -4.685765541028530379e+00
1.399999999999999911e+00 3.561608886718750000e+01 -5.871422195434570312e+01 8.879349078748406399e+00 4.191269675508682013e+00
1.399999999999999911e+00 4.391106796264648438e+01 -5.578038406372070312e+01 3.548311216870099649e+00 4.547682669678075662e+00
1.399999999999999911e+00 -5.236332321166992188e+01 7.880473136901855469e+00 -9.032168314897386807e+00 3.884081779808654655e-01
1.399999999999999911e+00 -2.045175552368164062e+01 1.070660710334777832e+00 8.598156624839534246e+00 1.762812629201462533e+00
1.399999999999999911e+00 1.403032207489013672e+01 -8.839918136596679688e+00 -1.043174028230526318e+01 8.966482880595572080e-01
1.399999999999999911e+00 6.265943145751953125e+01 -9.949797391891479492e-01 -8.212757793764033920e+00 -3.001692179693629670e-01
1.399999999999999911e+00 -4.488188171386718750e+01 -6.879328155517578125e+01 -7.609241789585947657e+00 -9.487706278876396837e+00
1.399999999999999911e+00 -2.822157669067382812e+01 6.519107818603515625e+01 9.627806740884244263e+00 -1.788860441023307102e+00
ITEM: TIMESTEP
2
ITEM: NUMBER OF ATOMS
10
ITEM: BOX BOUNDS f f
-70.0 70.0
-70.0 70.0
0 0
ITEM: ATOMS radius x y v_x v_y
1.399999999999999911e+00 -6.156442642211914062e+01 -5.625545501708984375e+01 2.644217026822988093e+00 -1.008167004673332379e+01
1.399999999999999911e+00 -1.125392913818359375e+01 -5.072792053222656250e+01 -8.339290629372046126e+00 -4.685769379535422274e+00
1.399999999999999911e+00 3.605860137939453125e+01 -5.850636291503906250e+01 8.814778298283341584e+00 4.115917084770954304e+00
1.399999999999999911e+00 4.409122467041015625e+01 -5.555320358276367188e+01 3.669021255092306699e+00 4.539914378939270634e+00
1.399999999999999911e+00 -5.281493377685546875e+01 7.899893760681152344e+00 -9.032185700324230737e+00 3.884107759461217779e-01
1.399999999999999911e+00 -2.002184867858886719e+01 1.158801317214965820e+00 8.598149295110578905e+00 1.762814099482767238e+00
1.399999999999999911e+00 1.350873565673828125e+01 -8.795085906982421875e+00 -1.043173506349277702e+01 8.966468672338313572e-01
1.399999999999999911e+00 6.224879455566406250e+01 -1.009988188743591309e+00 -8.212755871843413047e+00 -3.001687858633350636e-01
1.399999999999999911e+00 -4.526234817504882812e+01 -6.926767730712890625e+01 -7.609362614381239176e+00 -9.488085199648690349e+00
1.399999999999999911e+00 -2.774018669128417969e+01 6.510163879394531250e+01 9.627806607704753716e+00 -1.788859877247801711e+00
ITEM: TIMESTEP
3
ITEM: NUMBER OF ATOMS
10
ITEM: BOX BOUNDS f f
-70.0 70.0
-70.0 70.0
0 0
ITEM: ATOMS radius x y v_x v_y
1.399999999999999911e+00 -6.143222045898437500e+01 -5.675953674316406250e+01 2.644029564999248016e+00 -1.008156419394081915e+01
1.399999999999999911e+00 -1.167089366912841797e+01 -5.096220779418945312e+01 -8.339288602478774237e+00 -4.685773084849508052e+00
1.399999999999999911e+00 3.649757003784179688e+01 -5.830263137817382812e+01 8.736495404623459748e+00 4.024827339591874775e+00
1.399999999999999911e+00 4.427797317504882812e+01 -5.532639312744140625e+01 3.813828080724997349e+00 4.533320415561655103e+00
1.399999999999999911e+00 -5.326654434204101562e+01 7.919314384460449219e+00 -9.032200597380015239e+00 3.884129591824077021e-01
1.399999999999999911e+00 -1.959194183349609375e+01 1.246942043304443359e+00 8.598140586878745495e+00 1.762815964315046724e+00
1.399999999999999911e+00 1.298714923858642578e+01 -8.750253677368164062e+00 -1.043172910735409431e+01 8.966448658167717189e-01
1.399999999999999911e+00 6.183815765380859375e+01 -1.024996638298034668e+00 -8.212753913032994291e+00 -3.001683376466467434e-01
1.399999999999999911e+00 -4.564281845092773438e+01 -6.974208831787109375e+01 -7.609494678124524292e+00 -9.488516906289833130e+00
1.399999999999999911e+00 -2.725879669189453125e+01 6.501219940185546875e+01 9.627806476059799223e+00 -1.788859316155624324e+00
ITEM: TIMESTEP
4
ITEM: NUMBER OF ATOMS
10
ITEM: BOX BOUNDS f f
-70.0 70.0
-70.0 70.0
0 0
ITEM: ATOMS radius x y v_x v_y
1.399999999999999911e+00 -6.130002212524414062e+01 -5.726361083984375000e+01 2.643816443598133947e+00 -1.008143814179944009e+01
1.399999999999999911e+00 -1.208785820007324219e+01 -5.119649505615234375e+01 -8.339286580635134172e+00 -4.685776672402480969e+00
1.399999999999999911e+00 3.693225097656250000e+01 -5.810388183593750000e+01 8.642271572659307566e+00 3.915203222182881415e+00
1.399999999999999911e+00 4.447261047363281250e+01 -5.509987258911132812e+01 3.986458634985883709e+00 4.528753521119877945e+00
1.399999999999999911e+00 -5.371815490722656250e+01 7.938735008239746094e+00 -9.032213419216795103e+00 3.884148077142308697e-01
1.399999999999999911e+00 -1.916203498840332031e+01 1.335082888603210449e+00 8.598130318078926138e+00 1.762818241683816956e+00
1.399999999999999911e+00 1.246556282043457031e+01 -8.705421447753906250e+00 -1.043172224122892366e+01 8.966421582866509477e-01
1.399999999999999911e+00 6.142752075195312500e+01 -1.040005087852478027e+00 -8.212751915163712724e+00 -3.001678723925378378e-01
1.399999999999999911e+00 -4.602329635620117188e+01 6.978347778320312500e+01 -7.609639292165788937e+00 -9.489009679231640959e+00
1.399999999999999911e+00 -2.677740669250488281e+01 6.492276000976562500e+01 9.627806345855317360e+00 -1.788858757725531490e+00
ITEM: TIMESTEP
5
ITEM: NUMBER OF ATOMS
10
ITEM: BOX BOUNDS f f
-70.0 70.0
-70.0 70.0
0 0
ITEM: ATOMS radius x y v_x v_y
1.399999999999999911e+00 -6.116783142089843750e+01 -5.776768112182617188e+01 2.643814491833131441e+00 -1.008143984944660332e+01
1.399999999999999911e+00 -1.250482273101806641e+01 -5.143078231811523438e+01 -8.339289064568788490e+00 -4.685782680692999413e+00
1.399999999999999911e+00 3.736153793334960938e+01 -5.791133880615234375e+01 8.519020445722501833e+00 3.774423296733209199e+00
1.399999999999999911e+00 4.467640304565429688e+01 -5.487373733520507812e+01 4.181108640475398097e+00 4.517731818872920968e+00
1.399999999999999911e+00 -5.416976547241210938e+01 7.958155632019042969e+00 -9.032224688618480712e+00 3.884108301800340279e-01
1.399999999999999911e+00 -1.873212814331054688e+01 1.423223614692687988e+00 8.598118445564207235e+00 1.762808727927329455e+00
1.399999999999999911e+00 1.194397640228271484e+01 -8.660589218139648438e+00 -1.043171497908971901e+01 8.966323752649612011e-01
1.399999999999999911e+00 6.101688385009765625e+01 -1.055013537406921387e+00 -8.212749879008727660e+00 -3.001677635049980752e-01
1.399999999999999911e+00 -4.640378570556640625e+01 6.930902862548828125e+01 -7.609894510149596947e+00 -9.488948267802788550e+00
1.399999999999999911e+00 -2.629600906372070312e+01 6.483331298828125000e+01 9.628061426628022446e+00 -1.788919406559650982e+00
ITEM: TIMESTEP
6
ITEM: NUMBER OF ATOMS
10
ITEM: BOX BOUNDS f f
-70.0 70.0
-70.0 70.0
0 0
ITEM: ATOMS radius x y v_x v_y
1.399999999999999911e+00 -6.103564071655273438e+01 -5.827175140380859375e+01 2.643812444808483875e+00 -1.008144163566070262e+01
1.399999999999999911e+00 -1.292178726196289062e+01 -5.166507339477539062e+01 -8.339291455268822872e+00 -4.685788572986695044e+00
1.399999999999999911e+00 3.778415298461914062e+01 -5.772644042968750000e+01 8.374748888389797585e+00 3.608219607264320672e+00
1.399999999999999911e+00 4.489072036743164062e+01 -5.464809799194335938e+01 4.408588310422265621e+00 4.509558475071640871e+00
1.399999999999999911e+00 -5.462137603759765625e+01 7.977576255798339844e+00 -9.032234491230873630e+00 3.884072916944333875e-01
1.399999999999999911e+00 -1.830222320556640625e+01 1.511363863945007324e+00 8.598104475853492801e+00 1.762799140177537804e+00
1.399999999999999911e+00 1.142239093780517578e+01 -8.615757942199707031e+00 -1.043170636740663859e+01 8.966206422627366335e-01
1.399999999999999911e+00 6.060624694824218750e+01 -1.070021867752075195e+00 -8.212747797268335148e+00 -3.001676411836519121e-01
1.399999999999999911e+00 -4.678428649902343750e+01 6.883457946777343750e+01 -7.610093130540210637e+00 -9.488906135144571152e+00
1.399999999999999911e+00 -2.581459999084472656e+01 6.474386596679687500e+01 9.628259880742977117e+00 -1.788960755137379843e+00
ITEM: TIMESTEP
7
ITEM: NUMBER OF ATOMS
10
ITEM: BOX BOUNDS f f
-70.0 70.0
-70.0 70.0
0 0
ITEM: ATOMS radius x y v_x v_y
1.399999999999999911e+00 -6.090345001220703125e+01 -5.877582168579101562e+01 2.643810294649419301e+00 -1.008144350808189849e+01
1.399999999999999911e+00 -1.333875179290771484e+01 -5.189936447143554688e+01 -8.339293764357833538e+00 -4.685794369458164965e+00
1.399999999999999911e+00 3.819901275634765625e+01 -5.755051803588867188e+01 8.208787844607460471e+00 3.414760793419478357e+00
1.399999999999999911e+00 4.511725997924804688e+01 -5.442278289794921875e+01 4.670146311002396189e+00 4.505497560070028662e+00
1.399999999999999911e+00 -5.507298660278320312e+01 7.996996402740478516e+00 -9.032243055232862972e+00 3.884041315085383084e-01
1.399999999999999911e+00 -1.787231826782226562e+01 1.599503636360168457e+00 8.598087953000133510e+00 1.762789257516425900e+00
1.399999999999999911e+00 1.090080547332763672e+01 -8.570927619934082031e+00 -1.043169606947562045e+01 8.966064999602141317e-01
1.399999999999999911e+00 6.019561004638671875e+01 -1.085030198097229004e+00 -8.212745667836356844e+00 -3.001675049169957865e-01
1.399999999999999911e+00 -4.716479492187500000e+01 6.836013793945312500e+01 -7.610248239751842725e+00 -9.488877268360953465e+00
1.399999999999999911e+00 -2.533318328857421875e+01 6.465441894531250000e+01 9.628414794733732407e+00 -1.788988817203988502e+00
ITEM: TIMESTEP
8
ITEM: NUMBER OF ATOMS
10
ITEM: BOX BOUNDS f f
-70.0 70.0
-70.0 70.0
0 0
ITEM: ATOMS radius x y v_x v_y
1.399999999999999911e+00 -6.077125930786132812e+01 -5.927989578247070312e+01 2.643808032976495248e+00 -1.008144547489158782e+01
1.399999999999999911e+00 -1.375571632385253906e+01 -5.213365554809570312e+01 -8.339296002435489186e+00 -4.685800089694852844e+00
1.399999999999999911e+00 3.860503005981445312e+01 -5.738496398925781250e+01 8.021976433272177687e+00 3.193634875647660021e+00
1.399999999999999911e+00 4.535773468017578125e+01 -5.419755172729492188e+01 4.964851705448169561e+00 4.506784208070806486e+00
1.399999999999999911e+00 -5.552459716796875000e+01 8.016416549682617188e+00 -9.032250569367416659e+00 3.884012975030884940e-01
1.399999999999999911e+00 -1.744241523742675781e+01 1.687642812728881836e+00 8.598068285798703414e+00 1.762778870327798453e+00
1.399999999999999911e+00 1.037922096252441406e+01 -8.526097297668457031e+00 -1.043168365636602601e+01 8.965893613858488820e-01
1.399999999999999911e+00 5.978497314453125000e+01 -1.100038528442382812e+00 -8.212743488670703584e+00 -3.001673542417257479e-01
1.399999999999999911e+00 -4.754531097412109375e+01 6.788569641113281250e+01 -7.610369859645043533e+00 -9.488857525331287235e+00
1.399999999999999911e+00 -2.485175895690917969e+01 6.456497192382812500e+01 9.628536190569070286e+00 -1.789007735443722824e+00
ITEM: TIMESTEP
9
ITEM: NUMBER OF ATOMS
10
ITEM: BOX BOUNDS f f
-70.0 70.0
-70.0 70.0
0 0
ITEM: ATOMS radius x y v_x v_y
1.399999999999999911e+00 -6.063906860351562500e+01 -5.978396987915039062e+01 2.643805650863866319e+00 -1.008144754486148997e+01
1.399999999999999911e+00 -1.417268085479736328e+01 -5.236794662475585938e+01 -8.339298179191501958e+00 -4.685805752798799517e+00
1.399999999999999911e+00 3.900120925903320312e+01 -5.723115158081054688e+01 7.817094485887232658e+00 2.946452554695165205e+00
1.399999999999999911e+00 4.561374664306640625e+01 -5.397210693359375000e+01 5.288936968113470805e+00 4.514397527447539638e+00
1.399999999999999911e+00 -5.597621154785156250e+01 8.035836219787597656e+00 -9.032257190408074621e+00 3.883987449003147296e-01
1.399999999999999911e+00 -1.701251220703125000e+01 1.775781512260437012e+00 8.598044712026203129e+00 1.762767779062277773e+00
1.399999999999999911e+00 9.857637405395507812e+00 -8.481267929077148438e+00 -1.043166857918845025e+01 8.965684719676030312e-01
1.399999999999999911e+00 5.937433624267578125e+01 -1.115046858787536621e+00 -8.212741257812693263e+00 -3.001671887558928775e-01
1.399999999999999911e+00 -4.792583084106445312e+01 6.741125488281250000e+01 -7.610465649475972150e+00 -9.488844054171073239e+00
1.399999999999999911e+00 -2.437032890319824219e+01 6.447552490234375000e+01 9.628631727622501302e+00 -1.789020362043283630e+00
ITEM: TIMESTEP
10
ITEM: NUMBER OF ATOMS
10
ITEM: BOX BOUNDS f f
-70.0 70.0
-70.0 70.0
0 0
ITEM: ATOMS radius x y v_x v_y
1.399999999999999911e+00 -6.050687789916992188e+01 -6.028804397583007812e+01 2.643803138797764518e+00 -1.008144972740524459e+01
1.399999999999999911e+00 -1.458964538574218750e+01 -5.260223770141601562e+01 -8.339300303505906342e+00 -4.685811377484090379e+00
1.399999999999999911e+00 3.938674163818359375e+01 -5.709031677246093750e+01 7.599023535904422033e+00 2.677257802675173437e+00
1.399999999999999911e+00 4.588663101196289062e+01 -5.374611282348632812e+01 5.635510058748895545e+00 4.528808157869489648e+00
1.399999999999999911e+00 -5.642782592773437500e+01 8.055255889892578125e+00 -9.032263049106854069e+00 3.883964351638961587e-01
1.399999999999999911e+00 -1.658261108398437500e+01 1.863919615745544434e+00 8.598016250340528188e+00 1.762755796697526467e+00
1.399999999999999911e+00 9.336054801940917969e+00 -8.436440467834472656e+00 -1.043165013242881933e+01 8.965428557556931466e-01
1.399999999999999911e+00 5.896369934082031250e+01 -1.130055189132690430e+00 -8.212738973403473253e+00 -3.001670081316107908e-01
1.399999999999999911e+00 -4.830635452270507812e+01 6.693681335449218750e+01 -7.610541460488850163e+00 -9.488834890750425188e+00
1.399999999999999911e+00 -2.388889503479003906e+01 6.438607025146484375e+01 9.628707257211376103e+00 -1.789028661191588654e+00
ITEM: TIMESTEP
11
ITEM: NUMBER OF ATOMS
10
ITEM: BOX BOUNDS f f
-70.0 70.0
-70.0 70.0
0 0
ITEM: ATOMS radius x y v_x v_y
1.399999999999999911e+00 -6.037468719482421875e+01 -6.079211807250976562e+01 2.643800486631271873e+00 -1.008145203263529766e+01
1.399999999999999911e+00 -1.500661087036132812e+01 -5.283652877807617188e+01 -8.339302383542548824e+00 -4.685816982175855294e+00
1.399999999999999911e+00 3.976111221313476562e+01 -5.696342468261718750e+01 7.374466900349619713e+00 2.392527417117160660e+00
1.399999999999999911e+00 4.617729949951171875e+01 -5.351922607421875000e+01 5.994883691480270116e+00 4.549781420821993549e+00
1.399999999999999911e+00 -5.687944030761718750e+01 8.074675559997558594e+00 -9.032268254953027764e+00 3.883943350610276624e-01
1.399999999999999911e+00 -1.615271186828613281e+01 1.952057123184204102e+00 8.597981635875889594e+00 1.762742756425185409e+00
1.399999999999999911e+00 8.814473152160644531e+00 -8.391613960266113281e+00 -1.043162740528851629e+01 8.965112425498088511e-01
1.399999999999999911e+00 5.855306243896484375e+01 -1.145063519477844238e+00 -8.212736633694428079e+00 -3.001668121250019028e-01
1.399999999999999911e+00 -4.868688201904296875e+01 6.646237182617187500e+01 -7.610601766600419538e+00 -9.488828681281976429e+00
1.399999999999999911e+00 -2.340745735168457031e+01 6.429661560058593750e+01 9.628767253269803206e+00 -1.789033986516199937e+00
ITEM: TIMESTEP
12
ITEM: NUMBER OF ATOMS
10
ITEM: BOX BOUNDS f f
-70.0 70.0
-70.0 70.0
0 0
ITEM: ATOMS radius x y v_x v_y
1.399999999999999911e+00 -6.024249649047851562e+01 -6.129619216918945312e+01 2.643797683535697551e+00 -1.008145447142486795e+01
1.399999999999999911e+00 -1.542357635498046875e+01 -5.307081985473632812e+01 -8.339304426831903427e+00 -4.685822585105024807e+00
1.399999999999999911e+00 4.012418746948242188e+01 -5.685106277465820312e+01 7.151184747635611849e+00 2.100623360147924057e+00
1.399999999999999911e+00 4.648611831665039062e+01 -5.329113388061523438e+01 6.355605012203064952e+00 4.576324607026456270e+00
1.399999999999999911e+00 -5.733105468750000000e+01 8.094095230102539062e+00 -9.032272899982405789e+00 3.883924158673643934e-01
1.399999999999999911e+00 -1.572281360626220703e+01 2.040194034576416016e+00 8.597939234310025824e+00 1.762728527084125307e+00
1.399999999999999911e+00 8.292892456054687500e+00 -8.346789360046386719e+00 -1.043159921701674264e+01 8.964719686536295473e-01
1.399999999999999911e+00 5.814242553710937500e+01 -1.160071849822998047e+00 -8.212734237052035979e+00 -3.001666005839271345e-01
1.399999999999999911e+00 -4.906741333007812500e+01 6.598793029785156250e+01 -7.610649994944633789e+00 -9.488824491676034256e+00
1.399999999999999911e+00 -2.292601776123046875e+01 6.420716094970703125e+01 9.628815142881629541e+00 -1.789037271743909807e+00
ITEM: TIMESTEP
13
ITEM: NUMBER OF ATOMS
10
ITEM: BOX BOUNDS f f
-70.0 70.0
-70.0 70.0
0 0
ITEM: ATOMS radius x y v_x v_y
1.399999999999999911e+00 -6.011030578613281250e+01 -6.180026626586914062e+01 2.643794717952594464e+00 -1.008145705547334714e+01
1.399999999999999911e+00 -1.584054183959960938e+01 -5.330511093139648438e+01 -8.339306440346055282e+00 -4.685828204399106411e+00
1.399999999999999911e+00 4.047623062133789062e+01 -5.675336074829101562e+01 6.936900503170902788e+00 1.810756514739492840e+00
1.399999999999999911e+00 4.681285858154296875e+01 -5.306159210205078125e+01 6.705990758213753011e+00 4.606823468394798837e+00
1.399999999999999911e+00 -5.778266906738281250e+01 8.113514900207519531e+00 -9.032277061859119272e+00 3.883906526897287215e-01
1.399999999999999911e+00 -1.529291820526123047e+01 2.128329992294311523e+00 8.597886927298661774e+00 1.762713040317827273e+00
1.399999999999999911e+00 7.771313190460205078e+00 -8.301966667175292969e+00 -1.043156403085557393e+01 8.964228409572720935e-01
1.399999999999999911e+00 5.773178863525390625e+01 -1.175080180168151855e+00 -8.212731781956241761e+00 -3.001663734528448035e-01
1.399999999999999911e+00 -4.944794845581054688e+01 6.551348876953125000e+01 -7.610688777569369456e+00 -9.488821676704020547e+00
1.399999999999999911e+00 -2.244457626342773438e+01 6.411770629882812500e+01 9.628853557972130162e+00 -1.789039161552420598e+00
ITEM: TIMESTEP
14
ITEM: NUMBER OF ATOMS
10
ITEM: BOX BOUNDS f f
-70.0 70.0
-70.0 70.0
0 0
ITEM: ATOMS radius x y v_x v_y
1.399999999999999911e+00 -5.997811508178710938e+01 -6.230434036254882812e+01 2.643791577541781734e+00 -1.008145979737816411e+01
1.399999999999999911e+00 -1.625750732421875000e+01 -5.353940200805664062e+01 -8.339308430568667774e+00 -4.685833858169650590e+00
1.399999999999999911e+00 4.081787872314453125e+01 -5.666998672485351562e+01 6.738193700718171364e+00 1.531727370353809015e+00
1.399999999999999911e+00 4.715671920776367188e+01 -5.283045196533203125e+01 7.035741016884238697e+00 4.639335102920913556e+00
1.399999999999999911e+00 -5.823428344726562500e+01 8.132934570312500000e+00 -9.032280806365054815e+00 3.883890238936773542e-01
1.399999999999999911e+00 -1.486302566528320312e+01 2.216465234756469727e+00 8.597821959639043499e+00 1.762696335673161752e+00
1.399999999999999911e+00 7.249735832214355469e+00 -8.257146835327148438e+00 -1.043151983931660709e+01 8.963609496533193610e-01
1.399999999999999911e+00 5.732115173339843750e+01 -1.190088510513305664e+00 -8.212729266993216370e+00 -3.001661307741091966e-01
1.399999999999999911e+00 -4.982848358154296875e+01 6.503904724121093750e+01 -7.610720142280552380e+00 -9.488819790232598805e+00
1.399999999999999911e+00 -2.196313285827636719e+01 6.402825164794921875e+01 9.628884526143295375e+00 -1.789040101347731504e+00
ITEM: TIMESTEP
15
ITEM: NUMBER OF ATOMS
10
ITEM: BOX BOUNDS f f
-70.0 70.0
-70.0 70.0
0 0
ITEM: ATOMS radius x y v_x v_y
1.399999999999999911e+00 -5.984592437744140625e+01 -6.280841445922851562e+01 2.643788249123999012e+00 -1.008146271071388256e+01
1.399999999999999911e+00 -1.667447280883789062e+01 -5.377369308471679688e+01 -8.339310403559094809e+00 -4.685839564597124252e+00
1.399999999999999911e+00 4.115005111694335938e+01 -5.660018920898437500e+01 6.559710183356481039e+00 1.270810097527046656e+00
1.399999999999999911e+00 4.751643371582031250e+01 -5.259766006469726562e+01 7.337160901941971680e+00 4.671936683405220059e+00
1.399999999999999911e+00 -5.868589782714843750e+01 8.152354240417480469e+00 -9.032284189424720111e+00 3.883875106160651902e-01
1.399999999999999911e+00 -1.443313598632812500e+01 2.304599523544311523e+00 8.597740735688043756e+00 1.762678633240275516e+00
1.399999999999999911e+00 6.728160858154296875e+00 -8.212330818176269531e+00 -1.043146401148911728e+01 8.962824090279586375e-01
1.399999999999999911e+00 5.691051483154296875e+01 -1.205096840858459473e+00 -8.212726690847325983e+00 -3.001658726888241091e-01
1.399999999999999911e+00 -5.020901870727539062e+01 6.456460571289062500e+01 -7.610745656952644822e+00 -9.488818523582521536e+00
1.399999999999999911e+00 -2.148168754577636719e+01 6.393880081176757812e+01 9.628909614970858399e+00 -1.789040398915193286e+00
ITEM: TIMESTEP
16
ITEM: NUMBER OF ATOMS
10
ITEM: BOX BOUNDS f f
-70.0 70.0
-70.0 70.0
0 0
ITEM: ATOMS radius x y v_x v_y
1.399999999999999911e+00 -5.971373367309570312e+01 -6.331248855590820312e+01 2.643784718624532903e+00 -1.008146581011552101e+01
1.399999999999999911e+00 -1.709143829345703125e+01 -5.400798416137695312e+01 -8.339312365009380557e+00 -4.685845342007401548e+00
1.399999999999999911e+00 4.147385025024414062e+01 -5.654290771484375000e+01 6.403873427811680230e+00 1.033070879378877205e+00
1.399999999999999911e+00 4.789043426513671875e+01 -5.236325836181640625e+01 7.605702389177761980e+00 4.703015527434257770e+00
1.399999999999999911e+00 -5.913751220703125000e+01 8.171773910522460938e+00 -9.032287258756833026e+00 3.883860963524873866e-01
1.399999999999999911e+00 -1.400325107574462891e+01 2.392733097076416016e+00 8.597638548712003725e+00 1.762660448487296971e+00
1.399999999999999911e+00 6.206589221954345703e+00 -8.167518615722656250e+00 -1.043139309035386830e+01 8.961819972244631227e-01
1.399999999999999911e+00 5.649987792968750000e+01 -1.220105171203613281e+00 -8.212724052293356891e+00 -3.001655994377077086e-01
1.399999999999999911e+00 -5.058955764770507812e+01 6.409016418457031250e+01 -7.610766538534211811e+00 -9.488817663131033697e+00
1.399999999999999911e+00 -2.100024223327636719e+01 6.384934997558593750e+01 9.628930041005904883e+00 -1.789040266825543624e+00
ITEM: TIMESTEP
17
ITEM: NUMBER OF ATOMS
10
ITEM: BOX BOUNDS f f
-70.0 70.0
-70.0 70.0
0 0
ITEM: ATOMS radius x y v_x v_y
1.399999999999999911e+00 -5.958154296875000000e+01 -6.381656265258789062e+01 2.643780971014959125e+00 -1.008146911136656421e+01
1.399999999999999911e+00 -1.750840377807617188e+01 -5.424227523803710938e+01 -8.339314320295144967e+00 -4.685851208940272628e+00
1.399999999999999911e+00 4.179043960571289062e+01 -5.649688339233398438e+01 6.271069407133802009e+00 8.212119896017233689e-01
1.399999999999999911e+00 4.827700424194335938e+01 -5.212735748291015625e+01 7.839827357568072586e+00 4.731430108336096119e+00
1.399999999999999911e+00 -5.958912658691406250e+01 8.191193580627441406e+00 -9.032290055228118675e+00 3.883847666050964653e-01
1.399999999999999911e+00 -1.357337188720703125e+01 2.480865716934204102e+00 8.597509222408172391e+00 1.762642771559475685e+00
1.399999999999999911e+00 5.685021400451660156e+00 -8.122712135314941406e+00 -1.043130252501453725e+01 8.960526538149149456e-01
1.399999999999999911e+00 5.608924102783203125e+01 -1.235113501548767090e+00 -8.212721350188228797e+00 -3.001653113622320124e-01
1.399999999999999911e+00 -5.097009658813476562e+01 6.361572265625000000e+01 -7.610783735481688517e+00 -9.488817061091122440e+00
1.399999999999999911e+00 -2.051879501342773438e+01 6.375989913940429688e+01 9.628946752205992610e+00 -1.789039851660893854e+00
ITEM: TIMESTEP
18
ITEM: NUMBER OF ATOMS
10
ITEM: BOX BOUNDS f f
-70.0 70.0
-70.0 70.0
0 0
ITEM: ATOMS radius x y v_x v_y
1.399999999999999911e+00 -5.944935226440429688e+01 -6.432063293457031250e+01 2.643776990250309211e+00 -1.008147263149519723e+01
1.399999999999999911e+00 -1.792536926269531250e+01 -5.447656631469726562e+01 -8.339316274520166772e+00 -4.685857184214595961e+00
1.399999999999999911e+00 4.210095596313476562e+01 -5.646078491210937500e+01 6.160131193691723794e+00 6.358446452217512146e-01
1.399999999999999911e+00 4.867441940307617188e+01 -5.189011383056640625e+01 8.040407551679495057e+00 4.756535279248400805e+00
1.399999999999999911e+00 -6.004074096679687500e+01 8.210613250732421875e+00 -9.032292613967504380e+00 3.883835085825942945e-01
1.399999999999999911e+00 -1.314350032806396484e+01 2.568997383117675781e+00 8.597344639065168437e+00 1.762627344573683086e+00
1.399999999999999911e+00 5.163458824157714844e+00 -8.077913284301757812e+00 -1.043118631989459821e+01 8.958847773794237357e-01
1.399999999999999911e+00 5.567860412597656250e+01 -1.250121712684631348e+00 -8.212718583468936018e+00 -3.001650089091073559e-01
1.399999999999999911e+00 -5.135063552856445312e+01 6.314128112792968750e+01 -7.610797990178410188e+00 -9.488816615331220561e+00
1.399999999999999911e+00 -2.003734779357910156e+01 6.367044830322265625e+01 9.628960490351667900e+00 -1.789039254198482753e+00
ITEM: TIMESTEP
19
ITEM: NUMBER OF ATOMS
10
ITEM: BOX BOUNDS f f
-70.0 70.0
-70.0 70.0
0 0
ITEM: ATOMS radius x y v_x v_y
1.399999999999999911e+00 -5.931716537475585938e+01 -6.482470703125000000e+01 2.643772759209015444e+00 -1.008147638887391118e+01
1.399999999999999911e+00 -1.834233474731445312e+01 -5.471086120605468750e+01 -8.339318232552692223e+00 -4.685863286981239106e+00
1.399999999999999911e+00 4.240645217895507812e+01 -5.643329620361328125e+01 6.068915772649457807e+00 4.759973068682457065e-01
1.399999999999999911e+00 4.908104705810546875e+01 -5.165170288085937500e+01 8.209944030468545151e+00 4.778111217812633704e+00
1.399999999999999911e+00 -6.049235534667968750e+01 8.230031967163085938e+00 -9.032294965281446153e+00 3.883823109465459056e-01
1.399999999999999911e+00 -1.271363735198974609e+01 2.657128334045410156e+00 8.597134125095037049e+00 1.762617086718028636e+00
1.399999999999999911e+00 4.641902923583984375e+00 -8.033123970031738281e+00 -1.043103658118068999e+01 8.956652430123607234e-01
1.399999999999999911e+00 5.526796722412109375e+01 -1.265129923820495605e+00 -8.212715751153469412e+00 -3.001646926367444457e-01
1.399999999999999911e+00 -5.173117446899414062e+01 6.266683959960937500e+01 -7.610809886246827638e+00 -9.488816255401955502e+00
1.399999999999999911e+00 -1.955589866638183594e+01 6.358099746704101562e+01 9.628971838353040269e+00 -1.789038543386533675e+00
ITEM: TIMESTEP
20
ITEM: NUMBER OF ATOMS
10
ITEM: BOX BOUNDS f f
-70.0 70.0
-70.0 70.0
0 0
ITEM: ATOMS radius x y v_x v_y
1.399999999999999911e+00 -5.918497848510742188e+01 -6.532878112792968750e+01 2.643768259626529282e+00 -1.008148040332891782e+01
1.399999999999999911e+00 -1.875930023193359375e+01 -5.494515609741210938e+01 -8.339320199059271133e+00 -4.685869536775270738e+00
1.399999999999999911e+00 4.270784759521484375e+01 -5.641318511962890625e+01 5.994820411012233841e+00 3.396756597121123322e-01
1.399999999999999911e+00 4.949541473388671875e+01 -5.141230392456054688e+01 8.351828213779807442e+00 4.796248171164496199e+00
1.399999999999999911e+00 -6.094396972656250000e+01 8.249450683593750000e+00 -9.032297135416834877e+00 3.883811635916470384e-01
1.399999999999999911e+00 -1.228378677368164062e+01 2.745259046554565430e+00 8.596863663865732974e+00 1.762616740196143672e+00
1.399999999999999911e+00 4.120355129241943359e+00 -7.988347053527832031e+00 -1.043084294257806555e+01 8.953760303396555154e-01
1.399999999999999911e+00 5.485733032226562500e+01 -1.280138134956359863e+00 -8.212712852341230274e+00 -3.001643632235078685e-01
1.399999999999999911e+00 -5.211171340942382812e+01 6.219239807128906250e+01 -7.610819884577539440e+00 -9.488815932837374234e+00
1.399999999999999911e+00 -1.907444953918457031e+01 6.349154663085937500e+01 9.628981256271710976e+00 -1.789037766043082955e+00
ITEM: TIMESTEP
21
ITEM: NUMBER OF ATOMS
10
ITEM: BOX BOUNDS f f
-70.0 70.0
-70.0 70.0
0 0
ITEM: ATOMS radius x y v_x v_y
1.399999999999999911e+00 -5.905279159545898438e+01 -6.583285522460937500e+01 2.643763472030677075e+00 -1.008148469625427346e+01
1.399999999999999911e+00 -1.917626571655273438e+01 -5.517945098876953125e+01 -8.339322178531402230e+00 -4.685875953559995644e+00
1.399999999999999911e+00 4.300593185424804688e+01 -5.639933013916015625e+01 5.935165429828011874e+00 2.243517875282893259e-01
1.399999999999999911e+00 4.991622924804687500e+01 -5.117208099365234375e+01 8.469763752196291406e+00 4.811229056899690271e+00